 Gaussian 09, Revision D.01,

 ---------------------------------------
 #p hf/aug-cc-pv5z scf(xqc,MaxCycle=120)
 ---------------------------------------

 -------------
 Initial guess
 -------------
 Symbolic Z-matrix:
 Charge = -2 Multiplicity = 1

 SCF Done:  E(RHF) =  -919.109597044     A.U. after   10 cycles
 Normal termination of Gaussian 09 at Wed May 19 12:43:43 2021.
 Gaussian 09:  ES64L-G09RevD.01 24-Apr-2013

 ----------------------------------------------------------------------
 # lc-wpbe/aug-cc-pv5z output=wfx scf(xqc,MaxCycle=150) geom=check gues
 s=(read)
 ----------------------------------------------------------------------

 -----------------
 postg calculation
 -----------------
 Structure from the checkpoint file:  "tmp.chk"
 Charge = -2 Multiplicity = 1

                         Standard orientation:
 ---------------------------------------------------------------------
 Center     Atomic      Atomic             Coordinates (Angstroms)
 Number     Number       Type             X           Y           Z
 ---------------------------------------------------------------------
      1         17           0        0.000000    0.000000    6.000000
      2         17           0        0.000000    0.000000   -6.000000
 ---------------------------------------------------------------------

 SCF Done:  E(RLC-wPBE) =  -920.298674156     A.U. after    9 cycles

 The electronic state is 1-SGG.
 Alpha  occ. eigenvalues -- -100.51060-100.51060  -9.02180  -9.02180  -6.83101
 Alpha  occ. eigenvalues --   -6.83101  -6.83101  -6.83101  -6.83098  -6.83098
 Alpha  occ. eigenvalues --   -0.57103  -0.57103  -0.09340  -0.09340  -0.09340
 Alpha  occ. eigenvalues --   -0.09340  -0.09323  -0.09323
 Alpha virt. eigenvalues --    0.28112   0.28112   0.28131   0.28131   0.28174
 Alpha virt. eigenvalues --    0.28433   0.31781   0.31802   0.52139   0.52139
 Alpha virt. eigenvalues --    0.52139   0.52139   0.52205   0.52205   0.52205

 Mulliken charges:
               1
     1  Cl  -1.000000
     2  Cl  -1.000000
 Sum of Mulliken charges =  -2.00000

 Dipole moment (field-independent basis, Debye):
    X=              0.0000    Y=              0.0000    Z=              0.0000  Tot=              0.0000
 Quadrupole moment (field-independent basis, Debye-Ang):
   XX=            -34.5056   YY=            -34.5056   ZZ=           -383.8822
   XY=              0.0000   XZ=              0.0000   YZ=              0.0000

 Normal termination of Gaussian 09 at Wed May 19 12:45:25 2021.
