 Gaussian 09, Revision D.01,

 ----------------------------------
 #p hf/genECP scf(xqc,MaxCycle=120)
 ----------------------------------

 -------------
 Initial guess
 -------------
 Symbolic Z-matrix:
 Charge =  0 Multiplicity = 1

 SCF Done:  E(RHF) =  -443.513452123     A.U. after   14 cycles
 Normal termination of Gaussian 09 at Wed May 19 12:23:35 2021.
 Gaussian 09:  ES64L-G09RevD.01 24-Apr-2013

 ----------------------------------------------------------------------
 # lc-wpbe/genECP output=wfx scf(xqc,MaxCycle=150) geom=check guess=(re
 ad)
 ----------------------------------------------------------------------

 -----------------
 postg calculation
 -----------------
 Structure from the checkpoint file:  "tmp.chk"
 Charge =  0 Multiplicity = 1

                         Standard orientation:
 ---------------------------------------------------------------------
 Center     Atomic      Atomic             Coordinates (Angstroms)
 Number     Number       Type             X           Y           Z
 ---------------------------------------------------------------------
      1         19           0        0.000000    0.000000   -7.777778
      2         35           0        0.000000    0.000000    4.222222
 ---------------------------------------------------------------------

 SCF Done:  E(RLC-wPBE) =  -445.204134355     A.U. after   11 cycles

 The electronic state is 1-SG.
 Alpha  occ. eigenvalues --   -8.26981  -6.28007  -6.28001  -6.28001  -2.41073
 Alpha  occ. eigenvalues --   -2.41072  -2.41072  -2.41068  -2.41068  -1.74183
 Alpha  occ. eigenvalues --   -1.04995  -1.04995  -1.04985  -0.67030  -0.17654
 Alpha  occ. eigenvalues --   -0.17632  -0.17632
 Alpha virt. eigenvalues --   -0.11076  -0.05511  -0.05511  -0.05319  -0.01946
 Alpha virt. eigenvalues --   -0.01902  -0.01902  -0.01658  -0.01658  -0.01516
 Alpha virt. eigenvalues --   -0.00230  -0.00230   0.00300   0.01166   0.01166

 Mulliken charges:
               1
     1  K    0.999800
     2  Br  -0.999800
 Sum of Mulliken charges =   0.00000

 Dipole moment (field-independent basis, Debye):
    X=              0.0000    Y=              0.0000    Z=            -57.3924  Tot=             57.3924
 Quadrupole moment (field-independent basis, Debye-Ang):
   XX=            -31.6954   YY=            -31.6954   ZZ=            174.5890
   XY=              0.0000   XZ=              0.0000   YZ=              0.0000

 Normal termination of Gaussian 09 at Wed May 19 12:26:14 2021.
