 Gaussian 09, Revision D.01,

 ----------------------------------
 #p hf/genECP scf(xqc,MaxCycle=120)
 ----------------------------------

 -------------
 Initial guess
 -------------
 Symbolic Z-matrix:
 Charge =  0 Multiplicity = 1

 SCF Done:  E(RHF) =  -487.510697097     A.U. after   10 cycles
 Normal termination of Gaussian 09 at Wed May 19 12:31:43 2021.
 Gaussian 09:  ES64L-G09RevD.01 24-Apr-2013

 ----------------------------------------------------------------------
 # lc-wpbe/genECP output=wfx scf(xqc,MaxCycle=150) geom=check guess=(re
 ad)
 ----------------------------------------------------------------------

 -----------------
 postg calculation
 -----------------
 Structure from the checkpoint file:  "tmp.chk"
 Charge =  0 Multiplicity = 1

                         Standard orientation:
 ---------------------------------------------------------------------
 Center     Atomic      Atomic             Coordinates (Angstroms)
 Number     Number       Type             X           Y           Z
 ---------------------------------------------------------------------
      1         19           0        0.000000    0.000000    5.666667
      2         17           0        0.000000    0.000000   -6.333333
 ---------------------------------------------------------------------

 SCF Done:  E(RLC-wPBE) =  -488.383770675     A.U. after   10 cycles

 The electronic state is 1-SG.
 Alpha  occ. eigenvalues -- -100.63943  -9.11623  -6.92723  -6.92719  -6.92719
 Alpha  occ. eigenvalues --   -1.74188  -1.05000  -1.05000  -1.04990  -0.65932
 Alpha  occ. eigenvalues --   -0.18158  -0.18141  -0.18141
 Alpha virt. eigenvalues --   -0.11080  -0.05515  -0.05515  -0.05324  -0.01946
 Alpha virt. eigenvalues --   -0.01906  -0.01906  -0.01662  -0.01662  -0.01519
 Alpha virt. eigenvalues --   -0.00233  -0.00233   0.00298   0.01162   0.01162

 Mulliken charges:
               1
     1  K    0.999782
     2  Cl  -0.999782
 Sum of Mulliken charges =   0.00000

 Dipole moment (field-independent basis, Debye):
    X=              0.0000    Y=              0.0000    Z=             57.4557  Tot=             57.4557
 Quadrupole moment (field-independent basis, Debye-Ang):
   XX=            -25.4000   YY=            -25.4000   ZZ=            -62.2197
   XY=              0.0000   XZ=              0.0000   YZ=              0.0000

 Normal termination of Gaussian 09 at Wed May 19 12:33:52 2021.
